652
Atoms. Timestep: 0
C 263.249 373.683 374.928
C 264.067 374.946 374.96
H 263.45 373.148 373.993
H 263.53 373.03 375.762
C 265.415 375.002 375.026
C 266.251 373.737 375.078
H 265.948 373.086 374.247
H 266.015 373.204 376.007
C 266.07 376.359 375.044
H 267.156 376.622 375.456
H 265.285 376.876 375.983
H 265.704 376.97 374.211
H 263.511 375.882 374.224
C 267.749 373.683 374.928
C 268.567 374.946 374.96
H 267.95 373.148 373.993
H 268.03 373.03 375.762
C 269.915 375.002 375.026
C 270.751 373.737 375.078
H 270.448 373.086 374.247
H 270.515 373.204 376.007
C 270.57 376.359 375.044
H 271.656 376.622 375.456
H 269.785 376.876 375.983
H 270.204 376.97 374.211
H 268.011 375.882 374.224
C 272.249 373.683 374.928
C 273.067 374.946 374.96
H 272.45 373.148 373.993
H 272.53 373.03 375.762
C 274.415 375.002 375.026
C 275.251 373.737 375.078
H 274.948 373.086 374.247
H 275.015 373.204 376.007
C 275.07 376.359 375.044
H 276.156 376.622 375.456
H 274.285 376.876 375.983
H 274.704 376.97 374.211
H 272.511 375.882 374.224
C 276.749 373.683 374.928
C 277.567 374.946 374.96
H 276.95 373.148 373.993
H 277.03 373.03 375.762
C 278.915 375.002 375.026
C 279.751 373.737 375.078
H 279.448 373.086 374.247
H 279.515 373.204 376.007
C 279.57 376.359 375.044
H 280.656 376.622 375.456
H 278.785 376.876 375.983
H 279.204 376.97 374.211
H 277.011 375.882 374.224
C 281.249 373.683 374.928
C 282.067 374.946 374.96
H 281.45 373.148 373.993
H 281.53 373.03 375.762
C 283.415 375.002 375.026
C 284.251 373.737 375.078
H 283.948 373.086 374.247
H 284.015 373.204 376.007
C 284.07 376.359 375.044
H 285.156 376.622 375.456
H 283.285 376.876 375.983
H 283.704 376.97 374.211
H 281.511 375.882 374.224
C 285.749 373.683 374.928
C 286.567 374.946 374.96
H 285.95 373.148 373.993
H 286.03 373.03 375.762
C 287.915 375.002 375.026
C 288.751 373.737 375.078
H 288.448 373.086 374.247
H 288.515 373.204 376.007
C 288.57 376.359 375.044
H 289.656 376.622 375.456
H 287.785 376.876 375.983
H 288.204 376.97 374.211
H 286.011 375.882 374.224
C 290.249 373.683 374.928
C 291.067 374.946 374.96
H 290.45 373.148 373.993
H 290.53 373.03 375.762
C 292.415 375.002 375.026
C 293.251 373.737 375.078
H 292.948 373.086 374.247
H 293.015 373.204 376.007
C 293.07 376.359 375.044
H 294.156 376.622 375.456
H 292.285 376.876 375.983
H 292.704 376.97 374.211
H 290.511 375.882 374.224
C 294.749 373.683 374.928
C 295.567 374.946 374.96
H 294.95 373.148 373.993
H 295.03 373.03 375.762
C 296.915 375.002 375.026
C 297.751 373.737 375.078
H 297.448 373.086 374.247
H 297.515 373.204 376.007
C 297.57 376.359 375.044
H 298.656 376.622 375.456
H 296.785 376.876 375.983
H 297.204 376.97 374.211
H 295.011 375.882 374.224
C 299.249 373.683 374.928
C 300.067 374.946 374.96
H 299.45 373.148 373.993
H 299.53 373.03 375.762
C 301.415 375.002 375.026
C 302.251 373.737 375.078
H 301.948 373.086 374.247
H 302.015 373.204 376.007
C 302.07 376.359 375.044
H 303.156 376.622 375.456
H 301.285 376.876 375.983
H 301.704 376.97 374.211
H 299.511 375.882 374.224
C 303.749 373.683 374.928
C 304.567 374.946 374.96
H 303.95 373.148 373.993
H 304.03 373.03 375.762
C 305.915 375.002 375.026
C 306.751 373.737 375.078
H 306.448 373.086 374.247
H 306.515 373.204 376.007
C 306.57 376.359 375.044
H 307.656 376.622 375.456
H 305.785 376.876 375.983
H 306.204 376.97 374.211
H 304.011 375.882 374.224
C 308.249 373.683 374.928
C 309.067 374.946 374.96
H 308.45 373.148 373.993
H 308.53 373.03 375.762
C 310.415 375.002 375.026
C 311.251 373.737 375.078
H 310.948 373.086 374.247
H 311.015 373.204 376.007
C 311.07 376.359 375.044
H 312.156 376.622 375.456
H 310.285 376.876 375.983
H 310.704 376.97 374.211
H 308.511 375.882 374.224
C 312.749 373.683 374.928
C 313.567 374.946 374.96
H 312.95 373.148 373.993
H 313.03 373.03 375.762
C 314.915 375.002 375.026
C 315.751 373.737 375.078
H 315.448 373.086 374.247
H 315.515 373.204 376.007
C 315.57 376.359 375.044
H 316.656 376.622 375.456
H 314.785 376.876 375.983
H 315.204 376.97 374.211
H 313.011 375.882 374.224
C 317.249 373.683 374.928
C 318.067 374.946 374.96
H 317.45 373.148 373.993
H 317.53 373.03 375.762
C 319.415 375.002 375.026
C 320.251 373.737 375.078
H 319.948 373.086 374.247
H 320.015 373.204 376.007
C 320.07 376.359 375.044
H 321.156 376.622 375.456
H 319.285 376.876 375.983
H 319.704 376.97 374.211
H 317.511 375.882 374.224
C 321.749 373.683 374.928
C 322.567 374.946 374.96
H 321.95 373.148 373.993
H 322.03 373.03 375.762
C 323.915 375.002 375.026
C 324.751 373.737 375.078
H 324.448 373.086 374.247
H 324.515 373.204 376.007
C 324.57 376.359 375.044
H 325.656 376.622 375.456
H 323.785 376.876 375.983
H 324.204 376.97 374.211
H 322.011 375.882 374.224
C 326.249 373.683 374.928
C 327.067 374.946 374.96
H 326.45 373.148 373.993
H 326.53 373.03 375.762
C 328.415 375.002 375.026
C 329.251 373.737 375.078
H 328.948 373.086 374.247
H 329.015 373.204 376.007
C 329.07 376.359 375.044
H 330.156 376.622 375.456
H 328.285 376.876 375.983
H 328.704 376.97 374.211
H 326.511 375.882 374.224
C 330.749 373.683 374.928
C 331.567 374.946 374.96
H 330.95 373.148 373.993
H 331.03 373.03 375.762
C 332.915 375.002 375.026
C 333.751 373.737 375.078
H 333.448 373.086 374.247
H 333.515 373.204 376.007
C 333.57 376.359 375.044
H 334.656 376.622 375.456
H 332.785 376.876 375.983
H 333.204 376.97 374.211
H 331.011 375.882 374.224
C 335.249 373.683 374.928
C 336.067 374.946 374.96
H 335.45 373.148 373.993
H 335.53 373.03 375.762
C 337.415 375.002 375.026
C 338.251 373.737 375.078
H 337.948 373.086 374.247
H 338.015 373.204 376.007
C 338.07 376.359 375.044
H 339.156 376.622 375.456
H 337.285 376.876 375.983
H 337.704 376.97 374.211
H 335.511 375.882 374.224
C 339.749 373.683 374.928
C 340.567 374.946 374.96
H 339.95 373.148 373.993
H 340.03 373.03 375.762
C 341.915 375.002 375.026
C 342.751 373.737 375.078
H 342.448 373.086 374.247
H 342.515 373.204 376.007
C 342.57 376.359 375.044
H 343.656 376.622 375.456
H 341.785 376.876 375.983
H 342.204 376.97 374.211
H 340.011 375.882 374.224
C 344.249 373.683 374.928
C 345.067 374.946 374.96
H 344.45 373.148 373.993
H 344.53 373.03 375.762
C 346.415 375.002 375.026
C 347.251 373.737 375.078
H 346.948 373.086 374.247
H 347.015 373.204 376.007
C 347.07 376.359 375.044
H 348.156 376.622 375.456
H 346.285 376.876 375.983
H 346.704 376.97 374.211
H 344.511 375.882 374.224
C 348.749 373.683 374.928
C 349.567 374.946 374.96
H 348.95 373.148 373.993
H 349.03 373.03 375.762
C 350.915 375.002 375.026
C 351.751 373.737 375.078
H 351.448 373.086 374.247
H 351.515 373.204 376.007
C 351.57 376.359 375.044
H 352.656 376.622 375.456
H 350.785 376.876 375.983
H 351.204 376.97 374.211
H 349.011 375.882 374.224
C 353.249 373.683 374.928
C 354.067 374.946 374.96
H 353.45 373.148 373.993
H 353.53 373.03 375.762
C 355.415 375.002 375.026
C 356.251 373.737 375.078
H 355.948 373.086 374.247
H 356.015 373.204 376.007
C 356.07 376.359 375.044
H 357.156 376.622 375.456
H 355.285 376.876 375.983
H 355.704 376.97 374.211
H 353.511 375.882 374.224
C 357.749 373.683 374.928
C 358.567 374.946 374.96
H 357.95 373.148 373.993
H 358.03 373.03 375.762
C 359.915 375.002 375.026
C 360.751 373.737 375.078
H 360.448 373.086 374.247
H 360.515 373.204 376.007
C 360.57 376.359 375.044
H 361.656 376.622 375.456
H 359.785 376.876 375.983
H 360.204 376.97 374.211
H 358.011 375.882 374.224
C 362.249 373.683 374.928
C 363.067 374.946 374.96
H 362.45 373.148 373.993
H 362.53 373.03 375.762
C 364.415 375.002 375.026
C 365.251 373.737 375.078
H 364.948 373.086 374.247
H 365.015 373.204 376.007
C 365.07 376.359 375.044
H 366.156 376.622 375.456
H 364.285 376.876 375.983
H 364.704 376.97 374.211
H 362.511 375.882 374.224
C 366.749 373.683 374.928
C 367.567 374.946 374.96
H 366.95 373.148 373.993
H 367.03 373.03 375.762
C 368.915 375.002 375.026
C 369.751 373.737 375.078
H 369.448 373.086 374.247
H 369.515 373.204 376.007
C 369.57 376.359 375.044
H 370.656 376.622 375.456
H 368.785 376.876 375.983
H 369.204 376.97 374.211
H 367.011 375.882 374.224
C 371.249 373.683 374.928
C 372.067 374.946 374.96
H 371.45 373.148 373.993
H 371.53 373.03 375.762
C 373.415 375.002 375.026
C 374.251 373.737 375.078
H 373.948 373.086 374.247
H 374.015 373.204 376.007
C 374.07 376.359 375.044
H 375.156 376.622 375.456
H 373.285 376.876 375.983
H 373.704 376.97 374.211
H 371.511 375.882 374.224
C 375.749 373.683 374.928
C 376.567 374.946 374.96
H 375.95 373.148 373.993
H 376.03 373.03 375.762
C 377.915 375.002 375.026
C 378.751 373.737 375.078
H 378.448 373.086 374.247
H 378.515 373.204 376.007
C 378.57 376.359 375.044
H 379.656 376.622 375.456
H 377.785 376.876 375.983
H 378.204 376.97 374.211
H 376.011 375.882 374.224
C 380.249 373.683 374.928
C 381.067 374.946 374.96
H 380.45 373.148 373.993
H 380.53 373.03 375.762
C 382.415 375.002 375.026
C 383.251 373.737 375.078
H 382.948 373.086 374.247
H 383.015 373.204 376.007
C 383.07 376.359 375.044
H 384.156 376.622 375.456
H 382.285 376.876 375.983
H 382.704 376.97 374.211
H 380.511 375.882 374.224
C 384.749 373.683 374.928
C 385.567 374.946 374.96
H 384.95 373.148 373.993
H 385.03 373.03 375.762
C 386.915 375.002 375.026
C 387.751 373.737 375.078
H 387.448 373.086 374.247
H 387.515 373.204 376.007
C 387.57 376.359 375.044
H 388.656 376.622 375.456
H 386.785 376.876 375.983
H 387.204 376.97 374.211
H 385.011 375.882 374.224
C 389.249 373.683 374.928
C 390.067 374.946 374.96
H 389.45 373.148 373.993
H 389.53 373.03 375.762
C 391.415 375.002 375.026
C 392.251 373.737 375.078
H 391.948 373.086 374.247
H 392.015 373.204 376.007
C 392.07 376.359 375.044
H 393.156 376.622 375.456
H 391.285 376.876 375.983
H 391.704 376.97 374.211
H 389.511 375.882 374.224
C 393.749 373.683 374.928
C 394.567 374.946 374.96
H 393.95 373.148 373.993
H 394.03 373.03 375.762
C 395.915 375.002 375.026
C 396.751 373.737 375.078
H 396.448 373.086 374.247
H 396.515 373.204 376.007
C 396.57 376.359 375.044
H 397.656 376.622 375.456
H 395.785 376.876 375.983
H 396.204 376.97 374.211
H 394.011 375.882 374.224
C 398.249 373.683 374.928
C 399.067 374.946 374.96
H 398.45 373.148 373.993
H 398.53 373.03 375.762
C 400.415 375.002 375.026
C 401.251 373.737 375.078
H 400.948 373.086 374.247
H 401.015 373.204 376.007
C 401.07 376.359 375.044
H 402.156 376.622 375.456
H 400.285 376.876 375.983
H 400.704 376.97 374.211
H 398.511 375.882 374.224
C 402.749 373.683 374.928
C 403.567 374.946 374.96
H 402.95 373.148 373.993
H 403.03 373.03 375.762
C 404.915 375.002 375.026
C 405.751 373.737 375.078
H 405.448 373.086 374.247
H 405.515 373.204 376.007
C 405.57 376.359 375.044
H 406.656 376.622 375.456
H 404.785 376.876 375.983
H 405.204 376.97 374.211
H 403.011 375.882 374.224
C 407.249 373.683 374.928
C 408.067 374.946 374.96
H 407.45 373.148 373.993
H 407.53 373.03 375.762
C 409.415 375.002 375.026
C 410.251 373.737 375.078
H 409.948 373.086 374.247
H 410.015 373.204 376.007
C 410.07 376.359 375.044
H 411.156 376.622 375.456
H 409.285 376.876 375.983
H 409.704 376.97 374.211
H 407.511 375.882 374.224
C 411.749 373.683 374.928
C 412.567 374.946 374.96
H 411.95 373.148 373.993
H 412.03 373.03 375.762
C 413.915 375.002 375.026
C 414.751 373.737 375.078
H 414.448 373.086 374.247
H 414.515 373.204 376.007
C 414.57 376.359 375.044
H 415.656 376.622 375.456
H 413.785 376.876 375.983
H 414.204 376.97 374.211
H 412.011 375.882 374.224
C 416.249 373.683 374.928
C 417.067 374.946 374.96
H 416.45 373.148 373.993
H 416.53 373.03 375.762
C 418.415 375.002 375.026
C 419.251 373.737 375.078
H 418.948 373.086 374.247
H 419.015 373.204 376.007
C 419.07 376.359 375.044
H 420.156 376.622 375.456
H 418.285 376.876 375.983
H 418.704 376.97 374.211
H 416.511 375.882 374.224
C 420.749 373.683 374.928
C 421.567 374.946 374.96
H 420.95 373.148 373.993
H 421.03 373.03 375.762
C 422.915 375.002 375.026
C 423.751 373.737 375.078
H 423.448 373.086 374.247
H 423.515 373.204 376.007
C 423.57 376.359 375.044
H 424.656 376.622 375.456
H 422.785 376.876 375.983
H 423.204 376.97 374.211
H 421.011 375.882 374.224
C 425.249 373.683 374.928
C 426.067 374.946 374.96
H 425.45 373.148 373.993
H 425.53 373.03 375.762
C 427.415 375.002 375.026
C 428.251 373.737 375.078
H 427.948 373.086 374.247
H 428.015 373.204 376.007
C 428.07 376.359 375.044
H 429.156 376.622 375.456
H 427.285 376.876 375.983
H 427.704 376.97 374.211
H 425.511 375.882 374.224
C 429.749 373.683 374.928
C 430.567 374.946 374.96
H 429.95 373.148 373.993
H 430.03 373.03 375.762
C 431.915 375.002 375.026
C 432.751 373.737 375.078
H 432.448 373.086 374.247
H 432.515 373.204 376.007
C 432.57 376.359 375.044
H 433.656 376.622 375.456
H 431.785 376.876 375.983
H 432.204 376.97 374.211
H 430.011 375.882 374.224
C 434.249 373.683 374.928
C 435.067 374.946 374.96
H 434.45 373.148 373.993
H 434.53 373.03 375.762
C 436.415 375.002 375.026
C 437.251 373.737 375.078
H 436.948 373.086 374.247
H 437.015 373.204 376.007
C 437.07 376.359 375.044
H 438.156 376.622 375.456
H 436.285 376.876 375.983
H 436.704 376.97 374.211
H 434.511 375.882 374.224
C 438.749 373.683 374.928
C 439.567 374.946 374.96
H 438.95 373.148 373.993
H 439.03 373.03 375.762
C 440.915 375.002 375.026
C 441.751 373.737 375.078
H 441.448 373.086 374.247
H 441.515 373.204 376.007
C 441.57 376.359 375.044
H 442.656 376.622 375.456
H 440.785 376.876 375.983
H 441.204 376.97 374.211
H 439.011 375.882 374.224
C 443.249 373.683 374.928
C 444.067 374.946 374.96
H 443.45 373.148 373.993
H 443.53 373.03 375.762
C 445.415 375.002 375.026
C 446.251 373.737 375.078
H 445.948 373.086 374.247
H 446.015 373.204 376.007
C 446.07 376.359 375.044
H 447.156 376.622 375.456
H 445.285 376.876 375.983
H 445.704 376.97 374.211
H 443.511 375.882 374.224
C 447.749 373.683 374.928
C 448.567 374.946 374.96
H 447.95 373.148 373.993
H 448.03 373.03 375.762
C 449.915 375.002 375.026
C 450.751 373.737 375.078
H 450.448 373.086 374.247
H 450.515 373.204 376.007
C 450.57 376.359 375.044
H 451.656 376.622 375.456
H 449.785 376.876 375.983
H 450.204 376.97 374.211
H 448.011 375.882 374.224
C 452.249 373.683 374.928
C 453.067 374.946 374.96
H 452.45 373.148 373.993
H 452.53 373.03 375.762
C 454.415 375.002 375.026
C 455.251 373.737 375.078
H 454.948 373.086 374.247
H 455.015 373.204 376.007
C 455.07 376.359 375.044
H 456.156 376.622 375.456
H 454.285 376.876 375.983
H 454.704 376.97 374.211
H 452.511 375.882 374.224
C 456.749 373.683 374.928
C 457.567 374.946 374.96
H 456.95 373.148 373.993
H 457.03 373.03 375.762
C 458.915 375.002 375.026
C 459.751 373.737 375.078
H 459.448 373.086 374.247
H 459.515 373.204 376.007
C 459.57 376.359 375.044
H 460.656 376.622 375.456
H 458.785 376.876 375.983
H 459.204 376.97 374.211
H 457.011 375.882 374.224
C 461.249 373.683 374.928
C 462.067 374.946 374.96
H 461.45 373.148 373.993
H 461.53 373.03 375.762
C 463.415 375.002 375.026
C 464.251 373.737 375.078
H 463.948 373.086 374.247
H 464.015 373.204 376.007
C 464.07 376.359 375.044
H 465.156 376.622 375.456
H 463.285 376.876 375.983
H 463.704 376.97 374.211
H 461.511 375.882 374.224
C 465.749 373.683 374.928
C 466.567 374.946 374.96
H 465.95 373.148 373.993
H 466.03 373.03 375.762
C 467.915 375.002 375.026
C 468.751 373.737 375.078
H 468.448 373.086 374.247
H 468.515 373.204 376.007
C 468.57 376.359 375.044
H 469.656 376.622 375.456
H 467.785 376.876 375.983
H 468.204 376.97 374.211
H 466.011 375.882 374.224
C 470.249 373.683 374.928
C 471.067 374.946 374.96
H 470.45 373.148 373.993
H 470.53 373.03 375.762
C 472.415 375.002 375.026
C 473.251 373.737 375.078
H 472.948 373.086 374.247
H 473.015 373.204 376.007
C 473.07 376.359 375.044
H 474.156 376.622 375.456
H 472.285 376.876 375.983
H 472.704 376.97 374.211
H 470.511 375.882 374.224
C 474.749 373.683 374.928
C 475.567 374.946 374.96
H 474.95 373.148 373.993
H 475.03 373.03 375.762
C 476.915 375.002 375.026
C 477.751 373.737 375.078
H 477.448 373.086 374.247
H 477.515 373.204 376.007
C 477.57 376.359 375.044
H 478.656 376.622 375.456
H 476.785 376.876 375.983
H 477.204 376.97 374.211
H 475.011 375.882 374.224
C 479.249 373.683 374.928
C 480.067 374.946 374.96
H 479.45 373.148 373.993
H 479.53 373.03 375.762
C 481.415 375.002 375.026
C 482.251 373.737 375.078
H 481.948 373.086 374.247
H 482.015 373.204 376.007
C 482.07 376.359 375.044
H 483.156 376.622 375.456
H 481.285 376.876 375.983
H 481.704 376.97 374.211
H 479.511 375.882 374.224
C 483.749 373.683 374.928
C 484.567 374.946 374.96
H 483.95 373.148 373.993
H 484.03 373.03 375.762
C 485.915 375.002 375.026
C 486.751 373.737 375.078
H 486.448 373.086 374.247
H 486.515 373.204 376.007
C 486.57 376.359 375.044
H 487.656 376.622 375.456
H 485.785 376.876 375.983
H 486.204 376.97 374.211
H 484.011 375.882 374.224
H 262.159 373.683 374.928
H 487.841 373.737 375.078
652
Atoms. Timestep: 1000
C 266.249 375.374 373.576
C 266.66 374.949 374.963
H 266.989 375.484 372.799
H 265.514 374.588 373.341
C 267.866 374.415 375.312
C 269.174 374.34 374.471
H 269.043 374.229 373.371
H 269.647 373.41 374.833
C 267.866 374.051 376.676
H 267.122 373.314 376.903
H 267.72 374.822 377.339
H 268.819 373.527 376.868
H 265.813 374.868 375.557
C 270.336 375.346 374.631
C 271.112 375.187 375.993
H 269.911 376.442 374.48
H 271.196 375.266 373.927
C 272.343 374.643 376.264
C 273.312 374.327 375.069
H 272.764 373.891 374.197
H 273.96 373.586 375.396
C 272.871 374.614 377.726
H 273.211 373.593 377.836
H 272.114 375.119 378.327
H 273.661 375.359 377.918
H 270.481 375.604 376.782
C 274.204 375.412 374.235
C 274.926 376.337 375.281
H 273.615 376.039 373.539
H 274.828 374.817 373.48
C 276.27 376.494 375.63
C 277.356 375.62 374.929
H 276.929 374.867 374.306
H 277.839 374.968 375.73
C 276.44 377.553 376.681
H 275.591 377.918 377.203
H 276.829 378.433 375.995
H 277.352 377.306 377.354
H 274.108 376.897 375.753
C 278.575 376.293 374.528
C 279.595 376.944 375.56
H 278.302 377.198 373.876
H 279.076 375.642 373.956
C 280.829 376.385 375.869
C 281.493 375.263 375.139
H 280.797 374.66 374.527
H 281.805 374.385 375.857
C 281.494 377.056 377.048
H 280.795 377.441 377.735
H 281.968 377.955 376.699
H 282.364 376.578 377.616
H 279.252 377.929 375.9
C 282.894 375.504 374.358
C 283.885 376.596 374.828
H 282.685 375.892 373.276
H 283.347 374.549 374.259
C 285.214 376.629 375.038
C 286.029 375.381 375.025
H 285.167 374.685 375.239
H 286.723 375.382 375.871
C 285.738 377.885 375.692
H 285.029 378.17 376.397
H 286.053 378.618 375.007
H 286.651 377.404 376.216
H 283.305 377.483 374.831
C 286.829 375.153 373.782
C 287.907 376.236 373.53
H 286.299 374.988 372.769
H 287.418 374.252 373.848
C 289.269 376.108 373.516
C 289.965 374.721 373.625
H 289.378 373.99 373.185
H 289.613 374.369 374.536
C 289.947 377.376 372.77
H 289.269 377.8 372.065
H 290.655 376.887 372.086
H 290.782 377.987 373.28
H 287.388 377.132 373.047
C 291.424 374.646 373.605
C 292.036 375.296 374.937
H 291.998 375.089 372.842
H 291.713 373.589 373.545
C 292.975 374.904 375.833
C 293.765 373.562 375.623
H 293.096 372.728 375.767
H 294.189 373.615 376.605
C 293.197 375.837 377.046
H 294.269 376.023 376.945
H 292.992 375.395 378.056
H 292.574 376.826 377.05
H 291.558 376.348 375.204
C 294.725 373.478 374.471
C 295.523 374.806 374.151
H 294.223 373.232 373.603
H 295.434 372.702 374.549
C 296.811 375.052 374.495
C 297.901 374.031 375.03
H 297.415 373.099 374.969
H 297.951 374.222 376.084
C 297.144 376.528 374.173
H 296.29 377.089 374.329
H 297.773 376.773 373.288
H 297.701 376.92 375.129
H 294.948 375.508 373.481
C 299.282 374.107 374.221
C 300.282 375.112 374.832
H 299.127 374.497 373.269
H 299.786 373.191 373.994
C 301.446 374.889 375.544
C 302.38 373.662 375.695
H 301.832 372.773 375.737
H 302.615 373.627 376.763
C 301.973 376.27 376.012
H 301.407 376.213 376.933
H 301.619 377.149 375.463
H 303.111 376.142 376.245
H 299.889 376.056 374.786
C 303.593 373.58 374.59
C 304.657 374.74 374.672
H 303.237 373.638 373.579
H 304.196 372.672 374.606
C 305.916 374.841 375.215
C 306.927 373.678 375.644
H 306.315 372.78 375.776
H 307.072 373.825 376.679
C 306.405 376.304 375.266
H 305.632 376.916 375.633
H 306.754 376.831 374.376
H 307.261 376.451 376.042
H 304.125 375.483 374.222
C 308.179 373.54 374.684
C 309.167 374.746 374.644
H 307.916 373.443 373.684
H 308.8 372.698 374.829
C 310.441 374.923 375.075
C 311.478 373.831 375.537
H 310.895 372.879 375.655
H 311.612 374.046 376.562
C 310.887 376.402 375.046
H 310.104 376.958 375.464
H 311.066 376.945 374.129
H 311.758 376.567 375.812
H 308.61 375.404 374.072
C 312.717 373.738 374.557
C 313.769 374.908 374.579
H 312.487 373.627 373.538
H 313.275 372.858 374.738
C 315.031 375.012 375.089
C 316.008 373.877 375.574
H 315.419 372.937 375.719
H 316.202 374.087 376.602
C 315.507 376.491 375.179
H 314.789 377.021 375.732
H 315.557 377.095 374.288
H 316.439 376.587 375.873
H 313.283 375.596 374.037
C 317.213 373.721 374.55
C 318.274 374.861 374.524
H 316.924 373.627 373.537
H 317.773 372.818 374.708
C 319.514 374.958 375.079
C 320.48 373.821 375.596
H 319.892 372.875 375.742
H 320.652 374.039 376.627
C 320 376.435 375.176
H 319.26 376.989 375.686
H 320.107 377.029 374.28
H 320.9 376.53 375.909
H 317.809 375.538 373.968
C 321.715 373.659 374.6
C 322.756 374.814 374.571
H 321.432 373.568 373.596
H 322.287 372.772 374.759
C 324.002 374.936 375.108
C 324.995 373.807 375.597
H 324.417 372.854 375.731
H 325.175 374.006 376.629
C 324.474 376.416 375.154
H 323.724 376.994 375.625
H 324.59 376.964 374.231
H 325.376 376.529 375.884
H 322.291 375.482 374.009
C 326.228 373.677 374.587
C 327.273 374.831 374.574
H 325.94 373.607 373.585
H 326.8 372.794 374.722
C 328.519 374.945 375.11
C 329.504 373.81 375.595
H 328.924 372.862 375.724
H 329.687 374.005 376.626
C 328.997 376.426 375.157
H 328.258 377.005 375.645
H 329.098 376.983 374.237
H 329.909 376.522 375.878
H 326.812 375.504 374.015
C 330.738 373.677 374.584
C 331.784 374.831 374.567
H 330.453 373.602 373.583
H 331.308 372.795 374.729
C 333.025 374.947 375.109
C 334.008 373.809 375.598
H 333.426 372.867 375.73
H 334.194 374.006 376.628
C 333.499 376.432 375.156
H 332.765 377.007 375.652
H 333.585 376.992 374.236
H 334.418 376.525 375.867
H 331.325 375.498 373.998
C 335.238 373.675 374.581
C 336.279 374.831 374.561
H 334.952 373.598 373.581
H 335.807 372.794 374.732
C 337.517 374.947 375.109
C 338.498 373.808 375.596
H 337.915 372.868 375.73
H 338.687 374.004 376.626
C 337.983 376.435 375.167
H 337.254 377.001 375.677
H 338.053 377.003 374.252
H 338.909 376.522 375.869
H 335.818 375.494 373.989
C 339.721 373.676 374.573
C 340.76 374.832 374.555
H 339.432 373.605 373.573
H 340.29 372.793 374.721
C 341.996 374.945 375.107
C 342.976 373.806 375.591
H 342.393 372.866 375.72
H 343.163 373.996 376.622
C 342.458 376.434 375.181
H 341.732 376.992 375.703
H 342.515 377.014 374.272
H 343.389 376.516 375.876
H 340.298 375.498 373.985
C 344.196 373.679 374.563
C 345.235 374.835 374.552
H 343.906 373.617 373.562
H 344.766 372.793 374.702
C 346.471 374.943 375.106
C 347.452 373.802 375.583
H 346.868 372.861 375.705
H 347.636 373.983 376.617
C 346.932 376.431 375.193
H 346.207 376.983 375.723
H 346.986 377.018 374.289
H 347.864 376.506 375.887
H 344.773 375.506 373.988
C 348.672 373.683 374.554
C 349.713 374.838 374.553
H 348.383 373.631 373.552
H 349.243 372.794 374.682
C 350.951 374.942 375.106
C 351.932 373.799 375.576
H 351.349 372.856 375.69
H 352.113 373.969 376.613
C 351.412 376.428 375.204
H 350.688 376.977 375.736
H 351.468 377.018 374.302
H 352.346 376.498 375.897
H 349.252 375.515 373.995
C 353.155 373.686 374.548
C 354.197 374.841 374.555
H 352.867 373.642 373.544
H 353.726 372.795 374.666
C 355.437 374.941 375.107
C 356.419 373.796 375.571
H 355.836 372.851 375.679
H 356.597 373.959 376.61
C 355.9 376.425 375.21
H 355.175 376.974 375.743
H 355.958 377.017 374.31
H 356.834 376.491 375.903
H 353.738 375.523 374.002
C 357.644 373.688 374.544
C 358.687 374.843 374.557
H 357.358 373.648 373.539
H 358.215 372.796 374.656
C 359.929 374.94 375.107
C 360.912 373.795 375.568
H 360.329 372.849 375.673
H 361.088 373.953 376.608
C 360.393 376.423 375.212
H 359.669 376.972 375.745
H 360.453 377.016 374.313
H 361.327 376.488 375.906
H 358.229 375.527 374.007
C 362.139 373.689 374.542
C 363.182 374.844 374.559
H 361.854 373.652 373.537
H 362.709 372.797 374.652
C 364.425 374.94 375.108
C 365.408 373.794 375.567
H 364.825 372.848 375.67
H 365.584 373.95 376.607
C 364.89 376.422 375.214
H 364.165 376.972 375.746
H 364.951 377.015 374.314
H 365.823 376.486 375.908
H 362.725 375.53 374.01
C 366.635 373.69 374.54
C 367.679 374.844 374.559
H 366.351 373.654 373.535
H 367.206 372.797 374.649
C 368.921 374.94 375.108
C 369.905 373.793 375.566
H 369.321 372.847 375.668
H 370.081 373.949 376.606
C 369.387 376.422 375.215
H 368.662 376.972 375.747
H 369.449 377.016 374.316
H 370.32 376.486 375.91
H 367.222 375.531 374.011
C 371.131 373.69 374.539
C 372.174 374.845 374.559
H 370.845 373.655 373.534
H 371.702 372.797 374.647
C 373.416 374.94 375.109
C 374.398 373.792 375.564
H 373.815 372.846 375.667
H 374.577 373.947 376.604
C 373.881 376.423 375.218
H 373.156 376.972 375.751
H 373.942 377.018 374.32
H 374.813 376.485 375.914
H 371.717 375.532 374.011
C 375.623 373.69 374.535
C 376.665 374.846 374.557
H 375.335 373.658 373.532
H 376.193 372.798 374.642
C 377.904 374.941 375.11
C 378.885 373.79 375.56
H 378.302 372.844 375.663
H 379.069 373.943 376.599
C 378.369 376.424 375.225
H 377.643 376.97 375.759
H 378.429 377.022 374.329
H 379.3 376.485 375.922
H 376.206 375.533 374.012
C 380.108 373.691 374.529
C 381.148 374.848 374.555
H 379.817 373.664 373.527
H 380.677 372.799 374.634
C 382.385 374.942 375.112
C 383.364 373.786 375.553
H 382.781 372.841 375.653
H 383.554 373.936 376.591
C 382.848 376.425 375.237
H 382.122 376.965 375.777
H 382.904 377.031 374.346
H 383.777 376.483 375.936
H 380.688 375.537 374.014
C 384.584 373.694 374.52
C 385.623 374.851 374.553
H 384.29 373.674 373.518
H 385.152 372.801 374.62
C 386.857 374.943 375.112
C 387.835 373.78 375.541
H 387.252 372.835 375.636
H 388.029 373.924 376.579
C 387.318 376.426 375.254
H 386.591 376.956 375.804
H 387.368 377.045 374.373
H 388.246 376.48 375.954
H 385.159 375.543 374.019
C 389.054 373.698 374.508
C 390.093 374.855 374.553
H 388.758 373.687 373.507
H 389.619 372.804 374.602
C 391.326 374.942 375.112
C 392.303 373.775 375.526
H 391.723 372.828 375.613
H 392.5 373.91 376.565
C 391.785 376.426 375.273
H 391.058 376.942 375.835
H 391.828 377.061 374.404
H 392.712 376.474 375.974
H 389.624 375.552 374.029
C 393.526 373.704 374.497
C 394.567 374.859 374.555
H 393.232 373.701 373.496
H 394.088 372.807 374.584
C 395.803 374.941 375.109
C 396.782 373.77 375.514
H 396.204 372.821 375.592
H 396.973 373.901 376.554
C 396.263 376.423 375.287
H 395.535 376.928 375.858
H 396.305 377.072 374.429
H 397.189 376.467 375.99
H 394.093 375.561 374.042
C 398.012 373.708 374.493
C 399.057 374.859 374.56
H 397.724 373.708 373.488
H 398.573 372.81 374.575
C 400.299 374.938 375.105
C 401.281 373.769 375.512
H 400.704 372.819 375.589
H 401.461 373.904 376.552
C 400.765 376.42 375.285
H 400.032 376.925 375.851
H 400.821 377.072 374.43
H 401.687 376.462 375.994
H 398.582 375.566 374.052
C 402.516 373.71 374.498
C 403.566 374.856 374.567
H 402.235 373.702 373.487
H 403.082 372.811 374.581
C 404.815 374.933 375.104
C 405.797 373.768 375.52
H 405.217 372.82 375.613
H 405.971 373.914 376.559
C 405.292 376.414 375.271
H 404.548 376.941 375.805
H 405.397 377.047 374.404
H 406.205 376.454 375.992
H 403.097 375.564 374.054
C 407.03 373.704 374.505
C 408.079 374.85 374.566
H 406.747 373.685 373.492
H 407.606 372.812 374.597
C 409.33 374.932 375.105
C 410.311 373.766 375.527
H 409.724 372.827 375.647
H 410.491 373.924 376.563
C 409.811 376.412 375.253
H 409.056 376.971 375.741
H 409.973 377.012 374.366
H 410.716 376.455 375.983
H 407.623 375.557 374.039
C 411.533 373.7 374.501
C 412.578 374.851 374.564
H 411.241 373.679 373.492
H 412.114 372.813 374.604
C 413.823 374.934 375.118
C 414.8 373.758 375.521
H 414.203 372.831 375.654
H 414.998 373.905 376.557
C 414.296 376.413 375.267
H 413.531 376.994 375.725
H 414.496 376.984 374.364
H 415.198 376.458 375.994
H 412.141 375.556 374.027
C 416.014 373.703 374.486
C 417.049 374.861 374.56
H 415.708 373.696 373.484
H 416.592 372.817 374.585
C 418.29 374.939 375.117
C 419.268 373.755 375.496
H 418.668 372.832 375.597
H 419.463 373.861 376.536
C 418.745 376.42 375.295
H 417.962 376.996 375.741
H 418.951 376.986 374.386
H 419.639 376.475 376.029
H 416.622 375.567 374.021
C 420.499 373.721 374.477
C 421.531 374.883 374.574
H 420.208 373.732 373.476
H 421.065 372.829 374.567
C 422.774 374.943 375.106
C 423.754 373.749 375.463
H 423.155 372.814 375.496
H 423.918 373.791 376.51
C 423.222 376.418 375.335
H 422.439 376.942 375.837
H 423.337 377.043 374.456
H 424.135 376.471 376.056
H 421.091 375.595 374.05
C 425.006 373.732 374.472
C 426.053 374.881 374.598
H 424.734 373.778 373.459
H 425.553 372.82 374.528
C 427.309 374.917 375.089
C 428.301 373.724 375.414
H 427.723 372.776 375.337
H 428.401 373.692 376.468
C 427.773 376.381 375.377
H 426.976 376.853 375.876
H 427.923 377.094 374.57
H 428.669 376.402 376.129
H 425.587 375.611 374.116
C 429.591 373.759 374.47
C 430.626 374.931 374.645
H 429.351 373.796 373.429
H 430.172 372.857 374.506
C 431.873 375.016 375.106
C 432.903 373.855 375.482
H 432.315 372.896 375.48
H 432.995 373.923 376.539
C 432.316 376.481 375.444
H 431.559 376.896 375.995
H 432.532 377.283 374.716
H 433.311 376.444 376.069
H 430.141 375.668 374.159
C 434.147 373.791 374.498
C 435.195 374.983 374.604
H 433.856 373.745 373.485
H 434.765 372.926 374.603
C 436.404 375.007 375.19
C 437.332 373.83 375.603
H 436.714 372.935 375.921
H 437.575 374.128 376.602
C 436.996 376.407 375.424
H 437.586 376.763 374.673
H 437.311 376.788 376.426
H 436.084 377.044 375.473
H 434.626 375.754 374.226
C 438.504 373.533 374.581
C 439.626 374.595 374.481
H 438.152 373.521 373.577
H 439.058 372.638 374.719
C 440.883 374.723 374.909
C 441.923 373.609 375.276
H 441.358 372.647 375.104
H 441.954 373.586 376.358
C 441.391 376.178 375.021