lmp_atoms (by <class 'ase.io.opls.OPLSff'>)

392 atoms
3 atom types
391 bonds
5 bond types
720 angles
8 angle types
921 dihedrals
11 dihedral types

0.0 142.0  xlo xhi
0.0 18.0  ylo yhi
0.0 10.0  zlo zhi

Atoms

     1   1   1 -0.1867667 3.7964100000000047 7.682855 4.9278200000000005 # C1
     2   1   2 -0.1663 4.614620000000005 8.945704999999998 4.959530000000001 # C2
     3   1   3 0.0992111 3.9975600000000044 7.148175 3.99283 # H
     4   1   3 0.0992111 4.0772800000000045 7.030265 5.76239 # H
     5   1   2 -0.1663 5.962370000000004 9.002165 5.026020000000001 # C2
     6   1   1 -0.1867667 6.797890000000004 7.736654999999999 5.077630000000001 # C1
     7   1   3 0.0992111 6.495320000000005 7.085595 4.24718 # H
     8   1   3 0.0992111 6.562200000000004 7.203564999999999 6.00717 # H
     9   1   1 -0.1867667 6.617550000000005 10.358775 5.04449 # C1
    10   1   3 0.0992111 7.703590000000005 10.622135 4.945690000000001 # H
    11   1   3 0.0992111 6.391290000000005 10.876114999999999 5.98278 # H
    12   1   3 0.0992111 6.251160000000004 10.969735 4.2113499999999995 # H
    13   1   3 0.0992111 4.057860000000005 9.882074999999999 4.9240200000000005 # H
    14   1   1 -0.1867667 8.296410000000005 7.682855 4.9278200000000005 # C1
    15   1   2 -0.1663 9.114620000000006 8.945704999999998 4.959530000000001 # C2
    16   1   3 0.0992111 8.497560000000004 7.148175 3.99283 # H
    17   1   3 0.0992111 8.577280000000005 7.030265 5.76239 # H
    18   1   2 -0.1663 10.462370000000004 9.002165 5.026020000000001 # C2
    19   1   1 -0.1867667 11.297890000000006 7.736654999999999 5.077630000000001 # C1
    20   1   3 0.0992111 10.995320000000003 7.085595 4.24718 # H
    21   1   3 0.0992111 11.062200000000004 7.203564999999999 6.00717 # H
    22   1   1 -0.1867667 11.117550000000005 10.358775 5.04449 # C1
    23   1   3 0.0992111 12.203590000000005 10.622135 4.945690000000001 # H
    24   1   3 0.0992111 10.891290000000005 10.876114999999999 5.98278 # H
    25   1   3 0.0992111 10.751160000000006 10.969735 4.2113499999999995 # H
    26   1   3 0.0992111 8.557860000000005 9.882074999999999 4.9240200000000005 # H
    27   1   1 -0.1867667 12.796410000000005 7.682855 4.9278200000000005 # C1
    28   1   2 -0.1663 13.614620000000006 8.945704999999998 4.959530000000001 # C2
    29   1   3 0.0992111 12.997560000000004 7.148175 3.99283 # H
    30   1   3 0.0992111 13.077280000000005 7.030265 5.76239 # H
    31   1   2 -0.1663 14.962370000000004 9.002165 5.026020000000001 # C2
    32   1   1 -0.1867667 15.797890000000006 7.736654999999999 5.077630000000001 # C1
    33   1   3 0.0992111 15.495320000000003 7.085595 4.24718 # H
    34   1   3 0.0992111 15.562200000000004 7.203564999999999 6.00717 # H
    35   1   1 -0.1867667 15.617550000000005 10.358775 5.04449 # C1
    36   1   3 0.0992111 16.703590000000005 10.622135 4.945690000000001 # H
    37   1   3 0.0992111 15.391290000000005 10.876114999999999 5.98278 # H
    38   1   3 0.0992111 15.251160000000006 10.969735 4.2113499999999995 # H
    39   1   3 0.0992111 13.057860000000005 9.882074999999999 4.9240200000000005 # H
    40   1   1 -0.1867667 17.296410000000005 7.682855 4.9278200000000005 # C1
    41   1   2 -0.1663 18.114620000000006 8.945704999999998 4.959530000000001 # C2
    42   1   3 0.0992111 17.497560000000004 7.148175 3.99283 # H
    43   1   3 0.0992111 17.577280000000005 7.030265 5.76239 # H
    44   1   2 -0.1663 19.462370000000004 9.002165 5.026020000000001 # C2
    45   1   1 -0.1867667 20.297890000000002 7.736654999999999 5.077630000000001 # C1
    46   1   3 0.0992111 19.995320000000003 7.085595 4.24718 # H
    47   1   3 0.0992111 20.062200000000004 7.203564999999999 6.00717 # H
    48   1   1 -0.1867667 20.117550000000005 10.358775 5.04449 # C1
    49   1   3 0.0992111 21.203590000000002 10.622135 4.945690000000001 # H
    50   1   3 0.0992111 19.891290000000005 10.876114999999999 5.98278 # H
    51   1   3 0.0992111 19.751160000000002 10.969735 4.2113499999999995 # H
    52   1   3 0.0992111 17.557860000000005 9.882074999999999 4.9240200000000005 # H
    53   1   1 -0.1867667 21.796410000000005 7.682855 4.9278200000000005 # C1
    54   1   2 -0.1663 22.614620000000002 8.945704999999998 4.959530000000001 # C2
    55   1   3 0.0992111 21.997560000000004 7.148175 3.99283 # H
    56   1   3 0.0992111 22.077280000000005 7.030265 5.76239 # H
    57   1   2 -0.1663 23.962370000000004 9.002165 5.026020000000001 # C2
    58   1   1 -0.1867667 24.797890000000002 7.736654999999999 5.077630000000001 # C1
    59   1   3 0.0992111 24.495320000000003 7.085595 4.24718 # H
    60   1   3 0.0992111 24.562200000000004 7.203564999999999 6.00717 # H
    61   1   1 -0.1867667 24.617550000000005 10.358775 5.04449 # C1
    62   1   3 0.0992111 25.703590000000002 10.622135 4.945690000000001 # H
    63   1   3 0.0992111 24.391290000000005 10.876114999999999 5.98278 # H
    64   1   3 0.0992111 24.251160000000002 10.969735 4.2113499999999995 # H
    65   1   3 0.0992111 22.057860000000005 9.882074999999999 4.9240200000000005 # H
    66   1   1 -0.1867667 26.296410000000005 7.682855 4.9278200000000005 # C1
    67   1   2 -0.1663 27.114620000000002 8.945704999999998 4.959530000000001 # C2
    68   1   3 0.0992111 26.497560000000004 7.148175 3.99283 # H
    69   1   3 0.0992111 26.577280000000005 7.030265 5.76239 # H
    70   1   2 -0.1663 28.462370000000004 9.002165 5.026020000000001 # C2
    71   1   1 -0.1867667 29.297890000000002 7.736654999999999 5.077630000000001 # C1
    72   1   3 0.0992111 28.995320000000003 7.085595 4.24718 # H
    73   1   3 0.0992111 29.062200000000004 7.203564999999999 6.00717 # H
    74   1   1 -0.1867667 29.117550000000005 10.358775 5.04449 # C1
    75   1   3 0.0992111 30.203590000000002 10.622135 4.945690000000001 # H
    76   1   3 0.0992111 28.891290000000005 10.876114999999999 5.98278 # H
    77   1   3 0.0992111 28.751160000000002 10.969735 4.2113499999999995 # H
    78   1   3 0.0992111 26.557860000000005 9.882074999999999 4.9240200000000005 # H
    79   1   1 -0.1867667 30.796410000000005 7.682855 4.9278200000000005 # C1
    80   1   2 -0.1663 31.614620000000002 8.945704999999998 4.959530000000001 # C2
    81   1   3 0.0992111 30.997560000000004 7.148175 3.99283 # H
    82   1   3 0.0992111 31.077280000000005 7.030265 5.76239 # H
    83   1   2 -0.1663 32.96237000000001 9.002165 5.026020000000001 # C2
    84   1   1 -0.1867667 33.79789 7.736654999999999 5.077630000000001 # C1
    85   1   3 0.0992111 33.49532000000001 7.085595 4.24718 # H
    86   1   3 0.0992111 33.562200000000004 7.203564999999999 6.00717 # H
    87   1   1 -0.1867667 33.61755000000001 10.358775 5.04449 # C1
    88   1   3 0.0992111 34.703590000000005 10.622135 4.945690000000001 # H
    89   1   3 0.0992111 33.391290000000005 10.876114999999999 5.98278 # H
    90   1   3 0.0992111 33.251160000000006 10.969735 4.2113499999999995 # H
    91   1   3 0.0992111 31.057860000000005 9.882074999999999 4.9240200000000005 # H
    92   1   1 -0.1867667 35.29641000000001 7.682855 4.9278200000000005 # C1
    93   1   2 -0.1663 36.11462000000001 8.945704999999998 4.959530000000001 # C2
    94   1   3 0.0992111 35.49756000000001 7.148175 3.99283 # H
    95   1   3 0.0992111 35.57728000000001 7.030265 5.76239 # H
    96   1   2 -0.1663 37.46237000000001 9.002165 5.026020000000001 # C2
    97   1   1 -0.1867667 38.29789000000001 7.736654999999999 5.077630000000001 # C1
    98   1   3 0.0992111 37.99532000000001 7.085595 4.24718 # H
    99   1   3 0.0992111 38.062200000000004 7.203564999999999 6.00717 # H
   100   1   1 -0.1867667 38.11755000000001 10.358775 5.04449 # C1
   101   1   3 0.0992111 39.203590000000005 10.622135 4.945690000000001 # H
   102   1   3 0.0992111 37.891290000000005 10.876114999999999 5.98278 # H
   103   1   3 0.0992111 37.751160000000006 10.969735 4.2113499999999995 # H
   104   1   3 0.0992111 35.557860000000005 9.882074999999999 4.9240200000000005 # H
   105   1   1 -0.1867667 39.79641000000001 7.682855 4.9278200000000005 # C1
   106   1   2 -0.1663 40.61462000000001 8.945704999999998 4.959530000000001 # C2
   107   1   3 0.0992111 39.99756000000001 7.148175 3.99283 # H
   108   1   3 0.0992111 40.07728000000001 7.030265 5.76239 # H
   109   1   2 -0.1663 41.96237000000001 9.002165 5.026020000000001 # C2
   110   1   1 -0.1867667 42.79789000000001 7.736654999999999 5.077630000000001 # C1
   111   1   3 0.0992111 42.49532000000001 7.085595 4.24718 # H
   112   1   3 0.0992111 42.562200000000004 7.203564999999999 6.00717 # H
   113   1   1 -0.1867667 42.61755000000001 10.358775 5.04449 # C1
   114   1   3 0.0992111 43.703590000000005 10.622135 4.945690000000001 # H
   115   1   3 0.0992111 42.391290000000005 10.876114999999999 5.98278 # H
   116   1   3 0.0992111 42.251160000000006 10.969735 4.2113499999999995 # H
   117   1   3 0.0992111 40.057860000000005 9.882074999999999 4.9240200000000005 # H
   118   1   1 -0.1867667 44.29641000000001 7.682855 4.9278200000000005 # C1
   119   1   2 -0.1663 45.11462000000001 8.945704999999998 4.959530000000001 # C2
   120   1   3 0.0992111 44.49756000000001 7.148175 3.99283 # H
   121   1   3 0.0992111 44.57728000000001 7.030265 5.76239 # H
   122   1   2 -0.1663 46.46237000000001 9.002165 5.026020000000001 # C2
   123   1   1 -0.1867667 47.29789000000001 7.736654999999999 5.077630000000001 # C1
   124   1   3 0.0992111 46.99532000000001 7.085595 4.24718 # H
   125   1   3 0.0992111 47.062200000000004 7.203564999999999 6.00717 # H
   126   1   1 -0.1867667 47.11755000000001 10.358775 5.04449 # C1
   127   1   3 0.0992111 48.203590000000005 10.622135 4.945690000000001 # H
   128   1   3 0.0992111 46.891290000000005 10.876114999999999 5.98278 # H
   129   1   3 0.0992111 46.751160000000006 10.969735 4.2113499999999995 # H
   130   1   3 0.0992111 44.557860000000005 9.882074999999999 4.9240200000000005 # H
   131   1   1 -0.1867667 48.79641000000001 7.682855 4.9278200000000005 # C1
   132   1   2 -0.1663 49.61462000000001 8.945704999999998 4.959530000000001 # C2
   133   1   3 0.0992111 48.99756000000001 7.148175 3.99283 # H
   134   1   3 0.0992111 49.07728000000001 7.030265 5.76239 # H
   135   1   2 -0.1663 50.96237000000001 9.002165 5.026020000000001 # C2
   136   1   1 -0.1867667 51.79789000000001 7.736654999999999 5.077630000000001 # C1
   137   1   3 0.0992111 51.49532000000001 7.085595 4.24718 # H
   138   1   3 0.0992111 51.562200000000004 7.203564999999999 6.00717 # H
   139   1   1 -0.1867667 51.61755000000001 10.358775 5.04449 # C1
   140   1   3 0.0992111 52.703590000000005 10.622135 4.945690000000001 # H
   141   1   3 0.0992111 51.391290000000005 10.876114999999999 5.98278 # H
   142   1   3 0.0992111 51.251160000000006 10.969735 4.2113499999999995 # H
   143   1   3 0.0992111 49.057860000000005 9.882074999999999 4.9240200000000005 # H
   144   1   1 -0.1867667 53.29641000000001 7.682855 4.9278200000000005 # C1
   145   1   2 -0.1663 54.11462000000001 8.945704999999998 4.959530000000001 # C2
   146   1   3 0.0992111 53.49756000000001 7.148175 3.99283 # H
   147   1   3 0.0992111 53.57728000000001 7.030265 5.76239 # H
   148   1   2 -0.1663 55.46237000000001 9.002165 5.026020000000001 # C2
   149   1   1 -0.1867667 56.29789000000001 7.736654999999999 5.077630000000001 # C1
   150   1   3 0.0992111 55.99532000000001 7.085595 4.24718 # H
   151   1   3 0.0992111 56.062200000000004 7.203564999999999 6.00717 # H
   152   1   1 -0.1867667 56.11755000000001 10.358775 5.04449 # C1
   153   1   3 0.0992111 57.203590000000005 10.622135 4.945690000000001 # H
   154   1   3 0.0992111 55.891290000000005 10.876114999999999 5.98278 # H
   155   1   3 0.0992111 55.751160000000006 10.969735 4.2113499999999995 # H
   156   1   3 0.0992111 53.557860000000005 9.882074999999999 4.9240200000000005 # H
   157   1   1 -0.1867667 57.79641000000001 7.682855 4.9278200000000005 # C1
   158   1   2 -0.1663 58.61462000000001 8.945704999999998 4.959530000000001 # C2
   159   1   3 0.0992111 57.99756000000001 7.148175 3.99283 # H
   160   1   3 0.0992111 58.07728000000001 7.030265 5.76239 # H
   161   1   2 -0.1663 59.96237000000001 9.002165 5.026020000000001 # C2
   162   1   1 -0.1867667 60.79789000000001 7.736654999999999 5.077630000000001 # C1
   163   1   3 0.0992111 60.49532000000001 7.085595 4.24718 # H
   164   1   3 0.0992111 60.562200000000004 7.203564999999999 6.00717 # H
   165   1   1 -0.1867667 60.61755000000001 10.358775 5.04449 # C1
   166   1   3 0.0992111 61.703590000000005 10.622135 4.945690000000001 # H
   167   1   3 0.0992111 60.391290000000005 10.876114999999999 5.98278 # H
   168   1   3 0.0992111 60.251160000000006 10.969735 4.2113499999999995 # H
   169   1   3 0.0992111 58.057860000000005 9.882074999999999 4.9240200000000005 # H
   170   1   1 -0.1867667 62.29641000000001 7.682855 4.9278200000000005 # C1
   171   1   2 -0.1663 63.11462000000001 8.945704999999998 4.959530000000001 # C2
   172   1   3 0.0992111 62.49756000000001 7.148175 3.99283 # H
   173   1   3 0.0992111 62.57728000000001 7.030265 5.76239 # H
   174   1   2 -0.1663 64.46237 9.002165 5.026020000000001 # C2
   175   1   1 -0.1867667 65.29789000000001 7.736654999999999 5.077630000000001 # C1
   176   1   3 0.0992111 64.99532 7.085595 4.24718 # H
   177   1   3 0.0992111 65.0622 7.203564999999999 6.00717 # H
   178   1   1 -0.1867667 65.11755000000001 10.358775 5.04449 # C1
   179   1   3 0.0992111 66.20359 10.622135 4.945690000000001 # H
   180   1   3 0.0992111 64.89129 10.876114999999999 5.98278 # H
   181   1   3 0.0992111 64.75116 10.969735 4.2113499999999995 # H
   182   1   3 0.0992111 62.557860000000005 9.882074999999999 4.9240200000000005 # H
   183   1   1 -0.1867667 66.79641000000001 7.682855 4.9278200000000005 # C1
   184   1   2 -0.1663 67.61462 8.945704999999998 4.959530000000001 # C2
   185   1   3 0.0992111 66.99756000000001 7.148175 3.99283 # H
   186   1   3 0.0992111 67.07728 7.030265 5.76239 # H
   187   1   2 -0.1663 68.96236999999999 9.002165 5.026020000000001 # C2
   188   1   1 -0.1867667 69.79789 7.736654999999999 5.077630000000001 # C1
   189   1   3 0.0992111 69.49532 7.085595 4.24718 # H
   190   1   3 0.0992111 69.5622 7.203564999999999 6.00717 # H
   191   1   1 -0.1867667 69.61755 10.358775 5.04449 # C1
   192   1   3 0.0992111 70.70359 10.622135 4.945690000000001 # H
   193   1   3 0.0992111 69.39129 10.876114999999999 5.98278 # H
   194   1   3 0.0992111 69.25116 10.969735 4.2113499999999995 # H
   195   1   3 0.0992111 67.05786 9.882074999999999 4.9240200000000005 # H
   196   1   1 -0.1867667 71.29641 7.682855 4.9278200000000005 # C1
   197   1   2 -0.1663 72.11462 8.945704999999998 4.959530000000001 # C2
   198   1   3 0.0992111 71.49756 7.148175 3.99283 # H
   199   1   3 0.0992111 71.57728 7.030265 5.76239 # H
   200   1   2 -0.1663 73.46236999999999 9.002165 5.026020000000001 # C2
   201   1   1 -0.1867667 74.29789 7.736654999999999 5.077630000000001 # C1
   202   1   3 0.0992111 73.99532 7.085595 4.24718 # H
   203   1   3 0.0992111 74.0622 7.203564999999999 6.00717 # H
   204   1   1 -0.1867667 74.11755 10.358775 5.04449 # C1
   205   1   3 0.0992111 75.20359 10.622135 4.945690000000001 # H
   206   1   3 0.0992111 73.89129 10.876114999999999 5.98278 # H
   207   1   3 0.0992111 73.75116 10.969735 4.2113499999999995 # H
   208   1   3 0.0992111 71.55786 9.882074999999999 4.9240200000000005 # H
   209   1   1 -0.1867667 75.79641 7.682855 4.9278200000000005 # C1
   210   1   2 -0.1663 76.61462 8.945704999999998 4.959530000000001 # C2
   211   1   3 0.0992111 75.99756 7.148175 3.99283 # H
   212   1   3 0.0992111 76.07728 7.030265 5.76239 # H
   213   1   2 -0.1663 77.96236999999999 9.002165 5.026020000000001 # C2
   214   1   1 -0.1867667 78.79789 7.736654999999999 5.077630000000001 # C1
   215   1   3 0.0992111 78.49532 7.085595 4.24718 # H
   216   1   3 0.0992111 78.5622 7.203564999999999 6.00717 # H
   217   1   1 -0.1867667 78.61755 10.358775 5.04449 # C1
   218   1   3 0.0992111 79.70359 10.622135 4.945690000000001 # H
   219   1   3 0.0992111 78.39129 10.876114999999999 5.98278 # H
   220   1   3 0.0992111 78.25116 10.969735 4.2113499999999995 # H
   221   1   3 0.0992111 76.05786 9.882074999999999 4.9240200000000005 # H
   222   1   1 -0.1867667 80.29641 7.682855 4.9278200000000005 # C1
   223   1   2 -0.1663 81.11462 8.945704999999998 4.959530000000001 # C2
   224   1   3 0.0992111 80.49756 7.148175 3.99283 # H
   225   1   3 0.0992111 80.57728 7.030265 5.76239 # H
   226   1   2 -0.1663 82.46236999999999 9.002165 5.026020000000001 # C2
   227   1   1 -0.1867667 83.29789 7.736654999999999 5.077630000000001 # C1
   228   1   3 0.0992111 82.99532 7.085595 4.24718 # H
   229   1   3 0.0992111 83.0622 7.203564999999999 6.00717 # H
   230   1   1 -0.1867667 83.11755 10.358775 5.04449 # C1
   231   1   3 0.0992111 84.20359 10.622135 4.945690000000001 # H
   232   1   3 0.0992111 82.89129 10.876114999999999 5.98278 # H
   233   1   3 0.0992111 82.75116 10.969735 4.2113499999999995 # H
   234   1   3 0.0992111 80.55786 9.882074999999999 4.9240200000000005 # H
   235   1   1 -0.1867667 84.79641 7.682855 4.9278200000000005 # C1
   236   1   2 -0.1663 85.61462 8.945704999999998 4.959530000000001 # C2
   237   1   3 0.0992111 84.99756 7.148175 3.99283 # H
   238   1   3 0.0992111 85.07728 7.030265 5.76239 # H
   239   1   2 -0.1663 86.96236999999999 9.002165 5.026020000000001 # C2
   240   1   1 -0.1867667 87.79789 7.736654999999999 5.077630000000001 # C1
   241   1   3 0.0992111 87.49532 7.085595 4.24718 # H
   242   1   3 0.0992111 87.5622 7.203564999999999 6.00717 # H
   243   1   1 -0.1867667 87.61755 10.358775 5.04449 # C1
   244   1   3 0.0992111 88.70359 10.622135 4.945690000000001 # H
   245   1   3 0.0992111 87.39129 10.876114999999999 5.98278 # H
   246   1   3 0.0992111 87.25116 10.969735 4.2113499999999995 # H
   247   1   3 0.0992111 85.05786 9.882074999999999 4.9240200000000005 # H
   248   1   1 -0.1867667 89.29641 7.682855 4.9278200000000005 # C1
   249   1   2 -0.1663 90.11462 8.945704999999998 4.959530000000001 # C2
   250   1   3 0.0992111 89.49756 7.148175 3.99283 # H
   251   1   3 0.0992111 89.57728 7.030265 5.76239 # H
   252   1   2 -0.1663 91.46236999999999 9.002165 5.026020000000001 # C2
   253   1   1 -0.1867667 92.29789 7.736654999999999 5.077630000000001 # C1
   254   1   3 0.0992111 91.99532 7.085595 4.24718 # H
   255   1   3 0.0992111 92.0622 7.203564999999999 6.00717 # H
   256   1   1 -0.1867667 92.11755 10.358775 5.04449 # C1
   257   1   3 0.0992111 93.20359 10.622135 4.945690000000001 # H
   258   1   3 0.0992111 91.89129 10.876114999999999 5.98278 # H
   259   1   3 0.0992111 91.75116 10.969735 4.2113499999999995 # H
   260   1   3 0.0992111 89.55786 9.882074999999999 4.9240200000000005 # H
   261   1   1 -0.1867667 93.79641 7.682855 4.9278200000000005 # C1
   262   1   2 -0.1663 94.61462 8.945704999999998 4.959530000000001 # C2
   263   1   3 0.0992111 93.99756 7.148175 3.99283 # H
   264   1   3 0.0992111 94.07728 7.030265 5.76239 # H
   265   1   2 -0.1663 95.96236999999999 9.002165 5.026020000000001 # C2
   266   1   1 -0.1867667 96.79789 7.736654999999999 5.077630000000001 # C1
   267   1   3 0.0992111 96.49532 7.085595 4.24718 # H
   268   1   3 0.0992111 96.5622 7.203564999999999 6.00717 # H
   269   1   1 -0.1867667 96.61755 10.358775 5.04449 # C1
   270   1   3 0.0992111 97.70359 10.622135 4.945690000000001 # H
   271   1   3 0.0992111 96.39129 10.876114999999999 5.98278 # H
   272   1   3 0.0992111 96.25116 10.969735 4.2113499999999995 # H
   273   1   3 0.0992111 94.05786 9.882074999999999 4.9240200000000005 # H
   274   1   1 -0.1867667 98.29641 7.682855 4.9278200000000005 # C1
   275   1   2 -0.1663 99.11462 8.945704999999998 4.959530000000001 # C2
   276   1   3 0.0992111 98.49756 7.148175 3.99283 # H
   277   1   3 0.0992111 98.57728 7.030265 5.76239 # H
   278   1   2 -0.1663 100.46236999999999 9.002165 5.026020000000001 # C2
   279   1   1 -0.1867667 101.29789 7.736654999999999 5.077630000000001 # C1
   280   1   3 0.0992111 100.99532 7.085595 4.24718 # H
   281   1   3 0.0992111 101.0622 7.203564999999999 6.00717 # H
   282   1   1 -0.1867667 101.11755 10.358775 5.04449 # C1
   283   1   3 0.0992111 102.20359 10.622135 4.945690000000001 # H
   284   1   3 0.0992111 100.89129 10.876114999999999 5.98278 # H
   285   1   3 0.0992111 100.75116 10.969735 4.2113499999999995 # H
   286   1   3 0.0992111 98.55786 9.882074999999999 4.9240200000000005 # H
   287   1   1 -0.1867667 102.79641 7.682855 4.9278200000000005 # C1
   288   1   2 -0.1663 103.61462 8.945704999999998 4.959530000000001 # C2
   289   1   3 0.0992111 102.99756 7.148175 3.99283 # H
   290   1   3 0.0992111 103.07728 7.030265 5.76239 # H
   291   1   2 -0.1663 104.96236999999999 9.002165 5.026020000000001 # C2
   292   1   1 -0.1867667 105.79789 7.736654999999999 5.077630000000001 # C1
   293   1   3 0.0992111 105.49532 7.085595 4.24718 # H
   294   1   3 0.0992111 105.5622 7.203564999999999 6.00717 # H
   295   1   1 -0.1867667 105.61755 10.358775 5.04449 # C1
   296   1   3 0.0992111 106.70359 10.622135 4.945690000000001 # H
   297   1   3 0.0992111 105.39129 10.876114999999999 5.98278 # H
   298   1   3 0.0992111 105.25116 10.969735 4.2113499999999995 # H
   299   1   3 0.0992111 103.05786 9.882074999999999 4.9240200000000005 # H
   300   1   1 -0.1867667 107.29641 7.682855 4.9278200000000005 # C1
   301   1   2 -0.1663 108.11462 8.945704999999998 4.959530000000001 # C2
   302   1   3 0.0992111 107.49756 7.148175 3.99283 # H
   303   1   3 0.0992111 107.57728 7.030265 5.76239 # H
   304   1   2 -0.1663 109.46236999999999 9.002165 5.026020000000001 # C2
   305   1   1 -0.1867667 110.29789 7.736654999999999 5.077630000000001 # C1
   306   1   3 0.0992111 109.99532 7.085595 4.24718 # H
   307   1   3 0.0992111 110.0622 7.203564999999999 6.00717 # H
   308   1   1 -0.1867667 110.11755 10.358775 5.04449 # C1
   309   1   3 0.0992111 111.20359 10.622135 4.945690000000001 # H
   310   1   3 0.0992111 109.89129 10.876114999999999 5.98278 # H
   311   1   3 0.0992111 109.75116 10.969735 4.2113499999999995 # H
   312   1   3 0.0992111 107.55786 9.882074999999999 4.9240200000000005 # H
   313   1   1 -0.1867667 111.79641 7.682855 4.9278200000000005 # C1
   314   1   2 -0.1663 112.61462 8.945704999999998 4.959530000000001 # C2
   315   1   3 0.0992111 111.99756 7.148175 3.99283 # H
   316   1   3 0.0992111 112.07728 7.030265 5.76239 # H
   317   1   2 -0.1663 113.96236999999999 9.002165 5.026020000000001 # C2
   318   1   1 -0.1867667 114.79789 7.736654999999999 5.077630000000001 # C1
   319   1   3 0.0992111 114.49532 7.085595 4.24718 # H
   320   1   3 0.0992111 114.5622 7.203564999999999 6.00717 # H
   321   1   1 -0.1867667 114.61755 10.358775 5.04449 # C1
   322   1   3 0.0992111 115.70359 10.622135 4.945690000000001 # H
   323   1   3 0.0992111 114.39129 10.876114999999999 5.98278 # H
   324   1   3 0.0992111 114.25116 10.969735 4.2113499999999995 # H
   325   1   3 0.0992111 112.05786 9.882074999999999 4.9240200000000005 # H
   326   1   1 -0.1867667 116.29641 7.682855 4.9278200000000005 # C1
   327   1   2 -0.1663 117.11462 8.945704999999998 4.959530000000001 # C2
   328   1   3 0.0992111 116.49756 7.148175 3.99283 # H
   329   1   3 0.0992111 116.57728 7.030265 5.76239 # H
   330   1   2 -0.1663 118.46236999999999 9.002165 5.026020000000001 # C2
   331   1   1 -0.1867667 119.29789 7.736654999999999 5.077630000000001 # C1
   332   1   3 0.0992111 118.99532 7.085595 4.24718 # H
   333   1   3 0.0992111 119.0622 7.203564999999999 6.00717 # H
   334   1   1 -0.1867667 119.11755 10.358775 5.04449 # C1
   335   1   3 0.0992111 120.20359 10.622135 4.945690000000001 # H
   336   1   3 0.0992111 118.89129 10.876114999999999 5.98278 # H
   337   1   3 0.0992111 118.75116 10.969735 4.2113499999999995 # H
   338   1   3 0.0992111 116.55786 9.882074999999999 4.9240200000000005 # H
   339   1   1 -0.1867667 120.79641 7.682855 4.9278200000000005 # C1
   340   1   2 -0.1663 121.61462 8.945704999999998 4.959530000000001 # C2
   341   1   3 0.0992111 120.99756 7.148175 3.99283 # H
   342   1   3 0.0992111 121.07728 7.030265 5.76239 # H
   343   1   2 -0.1663 122.96236999999999 9.002165 5.026020000000001 # C2
   344   1   1 -0.1867667 123.79789 7.736654999999999 5.077630000000001 # C1
   345   1   3 0.0992111 123.49532 7.085595 4.24718 # H
   346   1   3 0.0992111 123.5622 7.203564999999999 6.00717 # H
   347   1   1 -0.1867667 123.61755 10.358775 5.04449 # C1
   348   1   3 0.0992111 124.70359 10.622135 4.945690000000001 # H
   349   1   3 0.0992111 123.39129 10.876114999999999 5.98278 # H
   350   1   3 0.0992111 123.25116 10.969735 4.2113499999999995 # H
   351   1   3 0.0992111 121.05786 9.882074999999999 4.9240200000000005 # H
   352   1   1 -0.1867667 125.29641 7.682855 4.9278200000000005 # C1
   353   1   2 -0.1663 126.11462 8.945704999999998 4.959530000000001 # C2
   354   1   3 0.0992111 125.49756 7.148175 3.99283 # H
   355   1   3 0.0992111 125.57728 7.030265 5.76239 # H
   356   1   2 -0.1663 127.46236999999999 9.002165 5.026020000000001 # C2
   357   1   1 -0.1867667 128.29789 7.736654999999999 5.077630000000001 # C1
   358   1   3 0.0992111 127.99532 7.085595 4.24718 # H
   359   1   3 0.0992111 128.06220000000002 7.203564999999999 6.00717 # H
   360   1   1 -0.1867667 128.11755 10.358775 5.04449 # C1
   361   1   3 0.0992111 129.20359000000002 10.622135 4.945690000000001 # H
   362   1   3 0.0992111 127.89129 10.876114999999999 5.98278 # H
   363   1   3 0.0992111 127.75116 10.969735 4.2113499999999995 # H
   364   1   3 0.0992111 125.55786 9.882074999999999 4.9240200000000005 # H
   365   1   1 -0.1867667 129.79641 7.682855 4.9278200000000005 # C1
   366   1   2 -0.1663 130.61462 8.945704999999998 4.959530000000001 # C2
   367   1   3 0.0992111 129.99756 7.148175 3.99283 # H
   368   1   3 0.0992111 130.07728 7.030265 5.76239 # H
   369   1   2 -0.1663 131.96237 9.002165 5.026020000000001 # C2
   370   1   1 -0.1867667 132.79789 7.736654999999999 5.077630000000001 # C1
   371   1   3 0.0992111 132.49532 7.085595 4.24718 # H
   372   1   3 0.0992111 132.5622 7.203564999999999 6.00717 # H
   373   1   1 -0.1867667 132.61755 10.358775 5.04449 # C1
   374   1   3 0.0992111 133.70359 10.622135 4.945690000000001 # H
   375   1   3 0.0992111 132.39129 10.876114999999999 5.98278 # H
   376   1   3 0.0992111 132.25116 10.969735 4.2113499999999995 # H
   377   1   3 0.0992111 130.05786 9.882074999999999 4.9240200000000005 # H
   378   1   1 -0.1867667 134.29641 7.682855 4.9278200000000005 # C1
   379   1   2 -0.1663 135.11462 8.945704999999998 4.959530000000001 # C2
   380   1   3 0.0992111 134.49756 7.148175 3.99283 # H
   381   1   3 0.0992111 134.57728 7.030265 5.76239 # H
   382   1   2 -0.1663 136.46237 9.002165 5.026020000000001 # C2
   383   1   1 -0.1867667 137.29789 7.736654999999999 5.077630000000001 # C1
   384   1   3 0.0992111 136.99532 7.085595 4.24718 # H
   385   1   3 0.0992111 137.0622 7.203564999999999 6.00717 # H
   386   1   1 -0.1867667 137.11755 10.358775 5.04449 # C1
   387   1   3 0.0992111 138.20359 10.622135 4.945690000000001 # H
   388   1   3 0.0992111 136.89129 10.876114999999999 5.98278 # H
   389   1   3 0.0992111 136.75116 10.969735 4.2113499999999995 # H
   390   1   3 0.0992111 134.55786 9.882074999999999 4.9240200000000005 # H
   391   1   3 0.0992111 2.7064100000000044 7.682855 4.9278200000000005 # H
   392   1   3 0.0992111 138.38789 7.736654999999999 5.077630000000001 # H

Velocities

     1 0 0 0
     2 0 0 0
     3 0 0 0
     4 0 0 0
     5 0 0 0
     6 0 0 0
     7 0 0 0
     8 0 0 0
     9 0 0 0
    10 0 0 0
    11 0 0 0
    12 0 0 0
    13 0 0 0
    14 0 0 0
    15 0 0 0
    16 0 0 0
    17 0 0 0
    18 0 0 0
    19 0 0 0
    20 0 0 0
    21 0 0 0
    22 0 0 0
    23 0 0 0
    24 0 0 0
    25 0 0 0
    26 0 0 0
    27 0 0 0
    28 0 0 0
    29 0 0 0
    30 0 0 0
    31 0 0 0
    32 0 0 0
    33 0 0 0
    34 0 0 0
    35 0 0 0
    36 0 0 0
    37 0 0 0
    38 0 0 0
    39 0 0 0
    40 0 0 0
    41 0 0 0
    42 0 0 0
    43 0 0 0
    44 0 0 0
    45 0 0 0
    46 0 0 0
    47 0 0 0
    48 0 0 0
    49 0 0 0
    50 0 0 0
    51 0 0 0
    52 0 0 0
    53 0 0 0
    54 0 0 0
    55 0 0 0
    56 0 0 0
    57 0 0 0
    58 0 0 0
    59 0 0 0
    60 0 0 0
    61 0 0 0
    62 0 0 0
    63 0 0 0
    64 0 0 0
    65 0 0 0
    66 0 0 0
    67 0 0 0
    68 0 0 0
    69 0 0 0
    70 0 0 0
    71 0 0 0
    72 0 0 0
    73 0 0 0
    74 0 0 0
    75 0 0 0
    76 0 0 0
    77 0 0 0
    78 0 0 0
    79 0 0 0
    80 0 0 0
    81 0 0 0
    82 0 0 0
    83 0 0 0
    84 0 0 0
    85 0 0 0
    86 0 0 0
    87 0 0 0
    88 0 0 0
    89 0 0 0
    90 0 0 0
    91 0 0 0
    92 0 0 0
    93 0 0 0
    94 0 0 0
    95 0 0 0
    96 0 0 0
    97 0 0 0
    98 0 0 0
    99 0 0 0
   100 0 0 0
   101 0 0 0
   102 0 0 0
   103 0 0 0
   104 0 0 0
   105 0 0 0
   106 0 0 0
   107 0 0 0
   108 0 0 0
   109 0 0 0
   110 0 0 0
   111 0 0 0
   112 0 0 0
   113 0 0 0
   114 0 0 0
   115 0 0 0
   116 0 0 0
   117 0 0 0
   118 0 0 0
   119 0 0 0
   120 0 0 0
   121 0 0 0
   122 0 0 0
   123 0 0 0
   124 0 0 0
   125 0 0 0
   126 0 0 0
   127 0 0 0
   128 0 0 0
   129 0 0 0
   130 0 0 0
   131 0 0 0
   132 0 0 0
   133 0 0 0
   134 0 0 0
   135 0 0 0
   136 0 0 0
   137 0 0 0
   138 0 0 0
   139 0 0 0
   140 0 0 0
   141 0 0 0
   142 0 0 0
   143 0 0 0
   144 0 0 0
   145 0 0 0
   146 0 0 0
   147 0 0 0
   148 0 0 0
   149 0 0 0
   150 0 0 0
   151 0 0 0
   152 0 0 0
   153 0 0 0
   154 0 0 0
   155 0 0 0
   156 0 0 0
   157 0 0 0
   158 0 0 0
   159 0 0 0
   160 0 0 0
   161 0 0 0
   162 0 0 0
   163 0 0 0
   164 0 0 0
   165 0 0 0
   166 0 0 0
   167 0 0 0
   168 0 0 0
   169 0 0 0
   170 0 0 0
   171 0 0 0
   172 0 0 0
   173 0 0 0
   174 0 0 0
   175 0 0 0
   176 0 0 0
   177 0 0 0
   178 0 0 0
   179 0 0 0
   180 0 0 0
   181 0 0 0
   182 0 0 0
   183 0 0 0
   184 0 0 0
   185 0 0 0
   186 0 0 0
   187 0 0 0
   188 0 0 0
   189 0 0 0